id, formula, natoms, volume, mass, density, energy_per_tsite, n_tsites, relative_energy, iza_code
164, O288Si144, 432, 7186.7409806862, 8651.952, 20.036898559025385, -31.70855712890625, 144, 8.463961467612998, PSI
165, O20Si10, 30, 581.6834893553158, 600.83, 17.19147987350144, -31.658511352539062, 10, 13.292644859764243, PTY
166, O72Si36, 108, 2416.678808522371, 2162.9880000000003, 14.896476881018154, -31.592403835720486, 36, 19.67105062603994, PUN
167, O480Si240, 720, 15256.18237713014, 14419.919999999998, 15.731327409914373, -31.667317708333332, 240, 12.442960689472345, PWN
168, O40Si20, 60, 1162.4494318284972, 1201.6600000000003, 17.20504948635969, -31.653506469726562, 20, 13.775542643966201, PWO
169, O80Si40, 120, 2302.396782086998, 2403.3199999999997, 17.373200097918033, -31.664984130859374, 40, 12.668116688854338, PWW
170, O96Si48, 144, 3304.4459877399536, 2883.9840000000004, 14.525884271701827, -31.6680908203125, 48, 12.368366722806886, RHO
171, O36Si18, 54, 1013.7759972335726, 1081.4940000000001, 17.755401636179027, -31.648386637369793, 18, 14.26953137321164, RRO
172, O72Si36, 108, 2134.2510488641838, 2162.9880000000003, 16.86774384820317, -31.634168836805557, 36, 15.641340593508902, RSN
173, O48Si24, 72, 1395.3741663572168, 1441.9920000000002, 17.199687781704267, -31.68678029378255, 24, 10.565106653650396, RTE
174, O64Si32, 96, 1966.5938520685734, 1922.6560000000002, 16.271788893441627, -31.673593521118164, 32, 11.837436803819596, RTH
175, O72Si36, 108, 1998.2693327577063, 2162.9880000000003, 18.01558949529506, -31.69091118706597, 36, 10.166536040097489, RUT
176, O64Si32, 96, 1653.2182385852652, 1922.6560000000002, 19.356186166554675, -31.675392150878906, 32, 11.663895412622017, RWR
177, O96Si48, 144, 6107.2386471930195, 2883.9840000000004, 7.859525846768987, -31.163976033528645, 48, 61.00804973663706, RWY
178, O128Si64, 192, 3396.4261920824883, 3845.312, 18.84333601866348, -31.702964782714844, 64, 9.003540851485004, SAF
179, O112Si56, 168, 3994.6152607805457, 3364.648, 14.018871992457575, -31.642656598772323, 56, 14.82239605471809, SAO
180, O64Si32, 96, 2038.9279268938542, 1922.6560000000002, 15.694522389886275, -31.679716110229492, 32, 11.246696755310339, SAS
181, O144Si72, 216, 4342.870596532275, 4325.976, 16.578896008895832, -31.669413248697918, 72, 12.24077177982658, SAT
182, O96Si48, 144, 3149.2417190417964, 2883.9840000000004, 15.241764298297404, -31.661956787109375, 48, 12.960210958322703, SAV
183, O256Si128, 384, 9280.88863702483, 7690.624, 13.791782770602547, -31.652254104614258, 128, 13.89637750871728, SBE
184, O20Si10, 30, 619.591584680572, 600.83, 16.13966400972902, -31.625640869140625, 10, 16.464164392471066, SBN
185, O192Si96, 288, 6960.4436773494745, 5767.968000000001, 13.792224238865854, -31.64854685465495, 96, 14.25407275511981, SBS
186, O288Si144, 432, 10447.920211940855, 8651.952, 13.782647367025584, -31.648373074001736, 144, 14.270840039293642, SBT
187, O132Si66, 198, 4053.920919016064, 3965.478, 16.280534652367862, -31.67623254024621, 66, 11.582810164766702, SEW
188, O28Si14, 42, 812.8988228407605, 841.162, 17.222315504253686, -31.672108241489955, 14, 11.980744503170955, SFE
189, O64Si32, 96, 1839.0488137974642, 1922.6560000000002, 17.400299415610935, -31.679912567138672, 32, 11.227741545031071, SFF
190, O148Si74, 222, 4166.4052777443785, 4446.142, 17.76111421404073, -31.690479175464528, 74, 10.208218823271851, SFG
191, O128Si64, 192, 3837.300062192899, 3845.312, 16.67839339189596, -31.675827026367188, 64, 11.621936306372762, SFH
192, O64Si32, 96, 1920.4682977031011, 1922.6560000000002, 16.662602573691174, -31.675579071044922, 32, 11.645860358181547, SFN
193, O64Si32, 96, 2095.5966548199226, 1922.6560000000002, 15.270114087269242, -31.654701232910156, 32, 13.660265520481335, SFO
194, O112Si56, 168, 3347.8931281159494, 3364.648, 16.72693776563722, -31.68420628138951, 56, 10.813461096236582, SFS
195, O1568Si784, 2352, 44571.367585892825, 47105.072, 17.58976765721099, -31.690594108737244, 784, 10.197129448194579, SFV
196, O216Si108, 324, 7093.175884457482, 6488.964, 15.225901875159877, -31.664067021122687, 108, 12.756604327088333, SFW
197, O128Si64, 192, 3610.1526461889207, 3845.312, 17.727782249751126, -31.68991470336914, 64, 10.262682101298191, SGT
198, O128Si64, 192, 3862.9574467008347, 3845.312, 16.567617138692352, -31.667057037353516, 64, 12.468111615732749, SIV
199, O24Si12, 36, 707.0471275853622, 720.9960000000001, 16.971994555697044, -31.675796508789062, 12, 11.62488080505692, SOD
200, O80Si40, 120, 2421.3019545274874, 2403.3199999999997, 16.520037876814882, -31.647705078125, 40, 14.335291843824622, SOF
201, O96Si48, 144, 2774.2445083628354, 2883.9840000000004, 17.302007755735357, -31.67609151204427, 48, 11.596417317776837, SOR
202, O48Si24, 72, 1416.9673183498858, 1441.9920000000002, 16.937581897053875, -31.543983459472656, 24, 24.342906746607603, SOS
203, O256Si128, 384, 8315.063257805721, 7690.624, 15.393749395693495, -31.655929565429688, 128, 13.541749448443964, SOV
204, O108Si54, 162, 3245.172808688073, 3244.482, 16.640099983406, -31.68721064814815, 54, 10.523583769428246, SSF
205, O56Si28, 84, 1632.2458674443924, 1682.3240000000003, 17.15427838321907, -31.669956752232142, 28, 12.188331660404115, SSY
206, O64Si32, 96, 1886.700089143687, 1922.6560000000002, 16.960830279349686, -31.67877960205078, 32, 11.337056058680448, STF
207, O144Si72, 216, 4265.910752566196, 4325.976, 16.877990229094166, -31.664621988932293, 72, 12.703058073239431, STI
208, O224Si112, 336, 6096.561814652901, 6729.295999999999, 18.37101031778459, -31.703262329101562, 112, 8.974831989314461, STO
209, O128Si64, 192, 3824.6700388749036, 3845.312, 16.73346964561334, -31.671566009521484, 64, 12.033061935148362, STT
210, O120Si60, 180, 3682.90504758914, 3604.98, 16.291487080090892, -31.64156494140625, 60, 14.927724979077134, STW
211, O112Si56, 168, 3161.2432544800945, 3364.648, 17.714549464245483, -31.685169764927455, 56, 10.72049906635121, SVV
212, O144Si72, 216, 4428.370678142237, 4325.976, 16.258801539668085, -31.66885715060764, 72, 12.29442708918243, SWY
213, O72Si36, 108, 2001.4921987008595, 2162.9880000000003, 17.986580224178287, -31.691538492838543, 36, 10.106010233811823, SZR
214, O160Si80, 240, 4564.2113290187635, 4806.639999999999, 17.527672194179228, -31.684368896484376, 80, 10.797771124676787, TER
215, O20Si10, 30, 610.0090942152708, 600.83, 16.393198224141596, -31.622097778320313, 10, 16.806020689701775, THO
216, O144Si72, 216, 4163.549221480031, 4325.976, 17.292938348980517, -31.675944010416668, 72, 11.610649061416707, TOL
217, O48Si24, 72, 1295.1799239281854, 1441.9920000000002, 18.530243988966234, -31.689249674479168, 24, 10.326847635123693, TON
218, O768Si384, 1152, 28807.549247425104, 23071.872000000003, 13.32983922727557, -31.659154256184895, 384, 13.230614087484687, TSC
219, O384Si192, 576, 10947.465170451493, 11535.936000000002, 17.538306540424607, -31.689058939615887, 192, 10.345250751899682, TUN
220, O96Si48, 144, 2641.795439890904, 2883.9840000000004, 18.16946129711777, -31.672327677408855, 48, 11.959572155489465, UEI
221, O128Si64, 192, 4181.482208426486, 3845.312, 15.305577498578797, -31.66203498840332, 64, 12.952665680444547, UFI
222, O24Si12, 36, 676.7753019631286, 720.9960000000001, 17.73114350537244, -31.673795064290363, 12, 11.817990843759748, UOE
223, O48Si24, 72, 1349.3555919901887, 1441.9920000000002, 17.786267861833196, -31.67554219563802, 24, 11.649418294091687, UOS
224, O352Si176, 528, 10819.879167065745, 10574.607999999998, 16.266355407712897, -31.663252397017047, 176, 12.835203605095131, UOV
225, O80Si40, 120, 2017.8732441928207, 2403.3199999999997, 19.822850674647107, -31.65836181640625, 40, 13.307072903316687, UOZ
226, O80Si40, 120, 2504.032168164122, 2403.3199999999997, 15.974235678180902, -31.643212890625, 40, 14.768722050132586, USI
227, O152Si76, 228, 4839.497194555957, 4566.308, 15.704110767022213, -31.669497841282894, 76, 12.232609836105786, UTL
228, O120Si60, 180, 3652.3301128066114, 3604.98, 16.427868825332812, -31.67374471028646, 60, 11.822849266588335, UWY
229, O34Si17, 51, 854.5327743939985, 1021.4110000000001, 19.893912216597826, -31.706406537224264, 17, 8.671462021943702, VET
230, O72Si36, 108, 2526.1010896132425, 2162.9880000000003, 14.251211144329842, -31.615553114149307, 36, 17.437484790845456, VFI
231, O120Si60, 180, 3370.439410679757, 3604.98, 17.801833140771123, -31.6442626953125, 60, 14.667431295397815, VNI
232, O72Si36, 108, 2135.2544932027945, 2162.9880000000003, 16.859816998207773, -31.63034396701389, 36, 16.01038442859019, VSV
233, O40Si20, 60, 1247.7303236675991, 1201.6600000000003, 16.02910470366038, -31.606170654296875, 20, 18.342754552964053, WEI
234, O240Si120, 360, 7256.218818958825, 7209.96, 16.537538764193233, -31.680668131510416, 120, 11.15484066510921, YFI
235, O32Si16, 48, 880.7394243311608, 961.328, 18.166553645705715, -31.677766799926758, 16, 11.43477660876095, YUG
236, O64Si32, 96, 1799.937349437857, 1922.6560000000002, 17.778396570299517, -31.658052444458008, 32, 13.336922758727203, ZON